 Gaussian 16, Revision B.01,
 Gaussian 16:  AM64L-G16RevB.01 20-Dec-2017

 -----------------
 #p gen 6d pbe1pbe
 -----------------

 ------------------
 start preoptimized
 ------------------
 Symbolic Z-matrix:
 Charge =  0 Multiplicity = 2

                         Standard orientation:
 ---------------------------------------------------------------------
 Center     Atomic      Atomic             Coordinates (Angstroms)
 Number     Number       Type             X           Y           Z
 ---------------------------------------------------------------------
      1          6           0       -1.324107    0.435837   -0.015846
      2          6           0       -0.270534    1.501532    0.052263
      3          6           0        0.968623    1.005079    0.030182
      4          6           0        2.199741    1.817882    0.084852
      5          6           0        0.965425   -0.504977   -0.053488
      6          6           0        1.418661   -1.206243    1.231730
      7          6           0        1.709236   -1.049961   -1.258195
      8          6           0       -2.275015    0.597388   -1.207641
      9          6           0       -2.080550    0.303356    1.303122
     10          7           0       -0.483797   -0.774978   -0.132678
     11          8           0       -0.940802   -1.949764   -0.108532
     12          1           0       -0.478953    2.406341    0.104183
     13          1           0        2.063296    2.655885   -0.382840
     14          1           0        2.930750    1.340681   -0.338108
     15          1           0        2.324351   -0.949262    1.466322
     16          1           0        1.399469   -2.170237    1.126475
     17          1           0        0.840379   -0.974973    1.975552
     18          1           0        2.642416   -0.792924   -1.197337
     19          1           0        1.318637   -0.682502   -2.065468
     20          1           0        1.634361   -2.017175   -1.266404
     21          1           0       -1.782903    0.821558   -2.012345
     22          1           0       -2.763581   -0.223990   -1.371944
     23          1           0       -2.918793    1.302651   -1.041468
     24          1           0       -1.445021    0.177077    2.024863
     25          1           0       -2.596510    1.109255    1.458493
     26          1           0       -2.675810   -0.461532    1.255299
     27          1           0        2.552031    2.082742    1.059860
 ---------------------------------------------------------------------

 SCF Done:  E(UPBE1PBE) =  -481.768630856     A.U. after   19 cycles

 The electronic state is 2-A.
 Alpha  occ. eigenvalues --  -19.21785 -14.47617 -10.27758 -10.27692 -10.24809
 Alpha  occ. eigenvalues --  -10.21761 -10.20762 -10.18457 -10.18248 -10.18141
 Alpha  occ. eigenvalues --  -10.17987  -1.13094  -0.92655  -0.85230  -0.81264
 Alpha  occ. eigenvalues --   -0.77015  -0.75290  -0.74730  -0.72840  -0.65680
 Alpha  occ. eigenvalues --   -0.59874  -0.56200  -0.51887  -0.50842  -0.48894
 Alpha  occ. eigenvalues --   -0.48166  -0.46674  -0.45416  -0.44765  -0.44462
 Alpha  occ. eigenvalues --   -0.44213  -0.43107  -0.42453  -0.42268  -0.40982
 Alpha  occ. eigenvalues --   -0.39928  -0.37003  -0.36732  -0.35997  -0.34727
 Alpha  occ. eigenvalues --   -0.26441  -0.26024  -0.19158
 Alpha virt. eigenvalues --    0.00496   0.03102   0.03617   0.04371   0.05120
 Alpha virt. eigenvalues --    0.05966   0.06259   0.06378   0.07205   0.08303
 Alpha virt. eigenvalues --    0.09255   0.09669   0.09735   0.10149   0.10759

  Beta  occ. eigenvalues --  -19.20398 -14.46390 -10.27825 -10.27760 -10.24809
  Beta  occ. eigenvalues --  -10.21759 -10.20764 -10.18408 -10.18201 -10.18088
  Beta  occ. eigenvalues --  -10.17934  -1.10488  -0.91713  -0.85104  -0.80936
  Beta  occ. eigenvalues --   -0.76432  -0.75087  -0.74619  -0.71892  -0.65508
  Beta  occ. eigenvalues --   -0.59456  -0.55625  -0.51327  -0.48847  -0.48514
  Beta  occ. eigenvalues --   -0.47833  -0.46309  -0.45020  -0.44714  -0.44396
  Beta  occ. eigenvalues --   -0.44064  -0.42886  -0.42285  -0.41591  -0.39513
  Beta  occ. eigenvalues --   -0.39348  -0.36830  -0.35927  -0.34669  -0.32383
  Beta  occ. eigenvalues --   -0.25719  -0.25287
  Beta virt. eigenvalues --   -0.02818   0.00535   0.03125   0.03638   0.04445
  Beta virt. eigenvalues --    0.05188   0.05990   0.06329   0.06429   0.07302
  Beta virt. eigenvalues --    0.08362   0.09377   0.09699   0.09821   0.10274

 Mulliken charges and spin densities:
               1          2
     1  C    0.240494  -0.033055
     2  C   -0.298468   0.000371
     3  C   -0.014900  -0.002791
     4  C   -0.394622  -0.000478
     5  C    0.206277  -0.033928
     6  C   -0.366420   0.027784
     7  C   -0.365830   0.020396
     8  C   -0.385061   0.020333
     9  C   -0.357202   0.027105
    10  N    0.078476   0.513565
    11  O   -0.546405   0.467660
    12  H    0.161305  -0.000696
    13  H    0.148910   0.000065
    14  H    0.130491   0.000017
    15  H    0.127008   0.000102
    16  H    0.151439  -0.000943
    17  H    0.127159  -0.001420
    18  H    0.120900   0.000475
    19  H    0.130640  -0.000931
    20  H    0.150036  -0.000961
    21  H    0.131348  -0.000854
    22  H    0.155725  -0.000957
    23  H    0.127248   0.000712
    24  H    0.125495  -0.001340
    25  H    0.126544   0.000607
    26  H    0.154918  -0.000959
    27  H    0.134495   0.000120
 Sum of Mulliken charges =  -0.00000   1.00000

 Dipole moment (field-independent basis, Debye):
    X=              1.6352    Y=              3.2008    Z=              0.1769  Tot=              3.5986
 Quadrupole moment (field-independent basis, Debye-Ang):
   XX=            -63.1817   YY=            -71.5141   ZZ=            -67.0930
   XY=             -4.0165   XZ=             -0.0196   YZ=             -0.4477

 Normal termination of Gaussian 16 at Sun Jun 23 21:42:13 2019.
