 Gaussian 16, Revision B.01,
 Gaussian 16:  AM64L-G16RevB.01 20-Dec-2017

 -----------------
 #p gen 6d pbe1pbe
 -----------------

 ------------------
 start preoptimized
 ------------------
 Symbolic Z-matrix:
 Charge =  0 Multiplicity = 2

                         Standard orientation:
 ---------------------------------------------------------------------
 Center     Atomic      Atomic             Coordinates (Angstroms)
 Number     Number       Type             X           Y           Z
 ---------------------------------------------------------------------
      1          6           0       -1.341973    0.442734   -0.037289
      2          6           0       -0.267640    1.483393    0.126990
      3          6           0        0.963040    0.992901    0.074307
      4          6           0        2.203666    1.828440    0.169409
      5          6           0        0.992604   -0.510804   -0.076367
      6          6           0        1.360745   -1.233039    1.216024
      7          6           0        1.857139   -0.985455   -1.241796
      8          6           0       -2.326426    0.782333   -1.151607
      9          6           0       -2.079734    0.142482    1.265284
     10          7           0       -0.493587   -0.724859   -0.449963
     11          8           0       -0.981711   -2.037126   -0.080716
     12          1           0       -0.440254    2.256307    0.614683
     13          1           0        2.045022    2.655432   -0.246761
     14          1           0        2.902043    1.391628   -0.280282
     15          1           0        2.225279   -0.978858    1.480186
     16          1           0        1.336449   -2.160607    1.074185
     17          1           0        0.747715   -1.003250    1.888960
     18          1           0        2.743846   -0.705125   -1.110896
     19          1           0        1.528894   -0.621742   -2.042727
     20          1           0        1.829696   -1.922950   -1.290385
     21          1           0       -1.853541    1.060658   -1.913005
     22          1           0       -2.837297    0.022797   -1.360876
     23          1           0       -2.895296    1.472402   -0.866916
     24          1           0       -1.455767   -0.031410    1.945629
     25          1           0       -2.605638    0.882256    1.504706
     26          1           0       -2.631502   -0.607921    1.146866
     27          1           0        2.500623    2.003485    1.182363
 ---------------------------------------------------------------------

 SCF Done:  E(UPBE1PBE) =  -481.618354975     A.U. after   19 cycles

 The electronic state is 2-A.
 Alpha  occ. eigenvalues --  -19.24270 -14.47873 -10.28476 -10.27837 -10.24925
 Alpha  occ. eigenvalues --  -10.21431 -10.20308 -10.17643 -10.17345 -10.17024
 Alpha  occ. eigenvalues --  -10.16915  -1.04828  -0.91623  -0.85437  -0.81501
 Alpha  occ. eigenvalues --   -0.77964  -0.76339  -0.75601  -0.73578  -0.65951
 Alpha  occ. eigenvalues --   -0.58647  -0.56485  -0.51669  -0.49509  -0.49322
 Alpha  occ. eigenvalues --   -0.48484  -0.46466  -0.45923  -0.45289  -0.45031
 Alpha  occ. eigenvalues --   -0.44672  -0.43709  -0.43270  -0.40976  -0.40468
 Alpha  occ. eigenvalues --   -0.38859  -0.37076  -0.36412  -0.35684  -0.34682
 Alpha  occ. eigenvalues --   -0.27615  -0.25969  -0.24368
 Alpha virt. eigenvalues --   -0.00118   0.03112   0.03681   0.04169   0.04956
 Alpha virt. eigenvalues --    0.05944   0.06172   0.06452   0.07039   0.08190
 Alpha virt. eigenvalues --    0.08936   0.09702   0.09867   0.10036   0.10701

  Beta  occ. eigenvalues --  -19.22580 -14.46938 -10.28465 -10.27827 -10.24921
  Beta  occ. eigenvalues --  -10.21428 -10.20307 -10.17622 -10.17329 -10.16997
  Beta  occ. eigenvalues --  -10.16893  -1.02155  -0.90158  -0.85315  -0.81126
  Beta  occ. eigenvalues --   -0.77225  -0.76251  -0.75534  -0.72625  -0.65814
  Beta  occ. eigenvalues --   -0.58102  -0.56137  -0.51301  -0.49259  -0.48428
  Beta  occ. eigenvalues --   -0.48327  -0.46231  -0.45706  -0.45254  -0.44977
  Beta  occ. eigenvalues --   -0.44616  -0.43561  -0.43225  -0.40125  -0.39245
  Beta  occ. eigenvalues --   -0.38314  -0.36913  -0.35836  -0.34773  -0.29401
  Beta  occ. eigenvalues --   -0.26213  -0.25301
  Beta virt. eigenvalues --   -0.07994  -0.00083   0.03119   0.03699   0.04237
  Beta virt. eigenvalues --    0.05008   0.06017   0.06243   0.06526   0.07178
  Beta virt. eigenvalues --    0.08231   0.09102   0.09744   0.09895   0.10247

 Mulliken charges and spin densities:
               1          2
     1  C    0.268232  -0.000600
     2  C   -0.244329   0.002909
     3  C   -0.012837   0.001514
     4  C   -0.400337   0.000367
     5  C    0.285633  -0.004528
     6  C   -0.363277   0.015760
     7  C   -0.400789   0.004792
     8  C   -0.391930   0.007438
     9  C   -0.377194   0.019386
    10  N   -0.205687   0.371245
    11  O   -0.442730   0.586408
    12  H    0.152133   0.000072
    13  H    0.163221   0.000277
    14  H    0.140778  -0.000038
    15  H    0.132946  -0.001177
    16  H    0.159568  -0.000345
    17  H    0.128384  -0.000332
    18  H    0.123824  -0.000215
    19  H    0.143415  -0.000055
    20  H    0.152969  -0.000162
    21  H    0.141244  -0.000287
    22  H    0.156812  -0.000414
    23  H    0.131833   0.000204
    24  H    0.126896  -0.000401
    25  H    0.132239  -0.001303
    26  H    0.167415  -0.000487
    27  H    0.131569  -0.000028
 Sum of Mulliken charges =  -0.00000   1.00000

 Dipole moment (field-independent basis, Debye):
    X=              1.8016    Y=              3.0293    Z=              0.8795  Tot=              3.6326
 Quadrupole moment (field-independent basis, Debye-Ang):
   XX=            -62.5198   YY=            -71.8124   ZZ=            -66.7515
   XY=             -3.9835   XZ=             -0.5679   YZ=             -0.1113

 Normal termination of Gaussian 16 at Sun Jun 23 21:42:02 2019.
