 Gaussian 16, Revision B.01,
 Gaussian 16:  AM64L-G16RevB.01 20-Dec-2017

 -----------------
 #p gen 6d pbe1pbe
 -----------------

 ------------------
 start preoptimized
 ------------------
 Symbolic Z-matrix:
 Charge =  0 Multiplicity = 2

                         Standard orientation:
 ---------------------------------------------------------------------
 Center     Atomic      Atomic             Coordinates (Angstroms)
 Number     Number       Type             X           Y           Z
 ---------------------------------------------------------------------
      1          6           0       -1.410545    0.221684    0.003442
      2          6           0       -0.475974    1.369867    0.047690
      3          6           0        0.776021    0.961261   -0.069336
      4          6           0        1.880324    1.925528    0.050440
      5          6           0        1.019944   -0.499539   -0.051999
      6          6           0        1.719774   -0.982701    1.263004
      7          6           0        1.918372   -0.676188   -1.245743
      8          6           0       -2.472346    0.515172   -1.100857
      9          6           0       -2.005946    0.094209    1.406830
     10          7           0       -0.401969   -0.881146   -0.130134
     11          8           0       -0.702813   -2.069031   -0.351092
     12          1           0       -0.753391    2.252393    0.144556
     13          1           0        2.774486    1.564347    0.155856
     14          1           0        1.911473    2.645995   -0.596982
     15          1           0        1.851700   -1.943608    1.252917
     16          1           0        2.588636   -0.563712    1.367452
     17          1           0        1.185301   -0.761496    2.041598
     18          1           0        2.075970   -1.622608   -1.388815
     19          1           0        1.489076   -0.293185   -2.026337
     20          1           0        2.761085   -0.224481   -1.079733
     21          1           0       -3.147132    1.131908   -0.774659
     22          1           0       -2.919037   -0.301407   -1.375001
     23          1           0       -2.055943    0.908956   -1.883591
     24          1           0       -1.289478   -0.040751    2.046837
     25          1           0       -2.611228   -0.663790    1.429473
     26          1           0       -2.489624    0.906026    1.623419
     27          1           0        1.366647    2.149928    0.961857
 ---------------------------------------------------------------------

 SCF Done:  E(UPBE1PBE) =  -481.712354647     A.U. after   18 cycles

 The electronic state is 2-A.
 Alpha  occ. eigenvalues --  -19.21757 -14.48257 -10.27978 -10.27961 -10.24086
 Alpha  occ. eigenvalues --  -10.20295 -10.20013 -10.19321 -10.18929 -10.18685
 Alpha  occ. eigenvalues --  -10.18187  -1.14109  -0.93480  -0.85627  -0.81647
 Alpha  occ. eigenvalues --   -0.77612  -0.75717  -0.75052  -0.71767  -0.66125
 Alpha  occ. eigenvalues --   -0.59642  -0.56799  -0.52274  -0.51208  -0.49712
 Alpha  occ. eigenvalues --   -0.48506  -0.47351  -0.46358  -0.45293  -0.44639
 Alpha  occ. eigenvalues --   -0.43817  -0.43369  -0.43089  -0.42142  -0.41594
 Alpha  occ. eigenvalues --   -0.39455  -0.37488  -0.37065  -0.35191  -0.33994
 Alpha  occ. eigenvalues --   -0.26242  -0.24049  -0.19333
 Alpha virt. eigenvalues --    0.01142   0.03066   0.03630   0.04204   0.04972
 Alpha virt. eigenvalues --    0.05940   0.06147   0.06363   0.07413   0.08724
 Alpha virt. eigenvalues --    0.09132   0.09366   0.09505   0.10096   0.10696

  Beta  occ. eigenvalues --  -19.20279 -14.47097 -10.28046 -10.28027 -10.24089
  Beta  occ. eigenvalues --  -10.20279 -10.20014 -10.19268 -10.18898 -10.18641
  Beta  occ. eigenvalues --  -10.18140  -1.11452  -0.92650  -0.85498  -0.81253
  Beta  occ. eigenvalues --   -0.76900  -0.75566  -0.74946  -0.70997  -0.65844
  Beta  occ. eigenvalues --   -0.59124  -0.56334  -0.51736  -0.49643  -0.49196
  Beta  occ. eigenvalues --   -0.48320  -0.46743  -0.45978  -0.44931  -0.44459
  Beta  occ. eigenvalues --   -0.43638  -0.43245  -0.42475  -0.41561  -0.39959
  Beta  occ. eigenvalues --   -0.39133  -0.37300  -0.35115  -0.33967  -0.33017
  Beta  occ. eigenvalues --   -0.25079  -0.23866
  Beta virt. eigenvalues --   -0.02832   0.01244   0.03097   0.03660   0.04298
  Beta virt. eigenvalues --    0.05043   0.05977   0.06189   0.06412   0.07533
  Beta virt. eigenvalues --    0.08816   0.09218   0.09413   0.09628   0.10172

 Mulliken charges and spin densities:
               1          2
     1  C    0.306456  -0.036651
     2  C   -0.341799   0.011064
     3  C   -0.001892  -0.007519
     4  C   -0.387421   0.000321
     5  C    0.220392  -0.026529
     6  C   -0.379352   0.025305
     7  C   -0.374513   0.019643
     8  C   -0.403520   0.016934
     9  C   -0.360112   0.021291
    10  N    0.037087   0.485844
    11  O   -0.541019   0.497868
    12  H    0.168406  -0.001212
    13  H    0.125724   0.000008
    14  H    0.154765  -0.000088
    15  H    0.154848  -0.000962
    16  H    0.128943  -0.000093
    17  H    0.128931  -0.001474
    18  H    0.150075  -0.001028
    19  H    0.138428  -0.000947
    20  H    0.121852   0.000089
    21  H    0.129815  -0.000202
    22  H    0.155536  -0.000726
    23  H    0.135836  -0.000319
    24  H    0.125093  -0.001460
    25  H    0.146979  -0.000854
    26  H    0.126510   0.001733
    27  H    0.133953  -0.000037
 Sum of Mulliken charges =  -0.00000   1.00000

 Dipole moment (field-independent basis, Debye):
    X=              1.1695    Y=              3.1567    Z=              0.6213  Tot=              3.4233
 Quadrupole moment (field-independent basis, Debye-Ang):
   XX=            -62.1988   YY=            -74.1257   ZZ=            -66.9947
   XY=             -4.4041   XZ=             -0.4766   YZ=             -1.9581

 Normal termination of Gaussian 16 at Sun Jun 23 21:43:06 2019.
