 Gaussian 16, Revision B.01,
 Gaussian 16:  AM64L-G16RevB.01 20-Dec-2017

 -----------------
 #p gen 6d pbe1pbe
 -----------------

 ------------------
 start preoptimized
 ------------------
 Symbolic Z-matrix:
 Charge =  0 Multiplicity = 2

                         Standard orientation:
 ---------------------------------------------------------------------
 Center     Atomic      Atomic             Coordinates (Angstroms)
 Number     Number       Type             X           Y           Z
 ---------------------------------------------------------------------
      1          6           0       -1.265943    0.399263   -0.052102
      2          6           0       -0.321111    1.462676    0.059876
      3          6           0        0.970717    0.951048    0.027058
      4          6           0        2.212202    1.822464    0.078508
      5          6           0        0.909913   -0.474359   -0.052637
      6          6           0        1.361348   -1.187285    1.216374
      7          6           0        1.849579   -1.023830   -1.110753
      8          6           0       -2.376475    0.575019   -1.068897
      9          6           0       -2.087206    0.162548    1.205708
     10          7           0       -0.475700   -0.774121   -0.439446
     11          8           0       -0.872288   -1.723224   -0.084049
     12          1           0       -0.515624    2.202995    0.587941
     13          1           0        2.929341    1.321960    0.419116
     14          1           0        2.422561    2.115571   -0.788067
     15          1           0        1.303561   -2.116824    1.094073
     16          1           0        2.249428   -0.951875    1.407749
     17          1           0        0.809543   -0.931534    1.932370
     18          1           0        1.839077   -1.962038   -1.084767
     19          1           0        1.571330   -0.731077   -1.958038
     20          1           0        2.721788   -0.716778   -0.944980
     21          1           0       -2.967677    1.242986   -0.776173
     22          1           0       -2.841806   -0.234589   -1.170467
     23          1           0       -2.006197    0.826608   -1.894252
     24          1           0       -1.515944   -0.081956    1.909172
     25          1           0       -2.707667   -0.525892    1.053868
     26          1           0       -2.543661    0.950678    1.434612
     27          1           0        2.042015    2.671133    0.707553
 ---------------------------------------------------------------------

 SCF Done:  E(UPBE1PBE) =  -481.557473387     A.U. after   19 cycles

 The electronic state is 2-A.
 Alpha  occ. eigenvalues --  -19.21901 -14.48540 -10.25627 -10.24852 -10.24805
 Alpha  occ. eigenvalues --  -10.20866 -10.20369 -10.17511 -10.16713 -10.16504
 Alpha  occ. eigenvalues --  -10.16040  -1.27582  -0.93628  -0.86552  -0.80584
 Alpha  occ. eigenvalues --   -0.78326  -0.75850  -0.74630  -0.72199  -0.67002
 Alpha  occ. eigenvalues --   -0.62137  -0.57104  -0.55008  -0.53001  -0.50063
 Alpha  occ. eigenvalues --   -0.49018  -0.47714  -0.46879  -0.45339  -0.44914
 Alpha  occ. eigenvalues --   -0.44014  -0.44002  -0.43170  -0.42835  -0.42454
 Alpha  occ. eigenvalues --   -0.42055  -0.36839  -0.36321  -0.35666  -0.34738
 Alpha  occ. eigenvalues --   -0.25482  -0.23431  -0.18620
 Alpha virt. eigenvalues --   -0.00861   0.03090   0.03734   0.04344   0.04579
 Alpha virt. eigenvalues --    0.06101   0.06452   0.06536   0.07204   0.08074
 Alpha virt. eigenvalues --    0.09254   0.09742   0.10010   0.10558   0.10932

  Beta  occ. eigenvalues --  -19.20499 -14.47555 -10.25571 -10.24834 -10.24746
  Beta  occ. eigenvalues --  -10.20867 -10.20365 -10.17486 -10.16689 -10.16472
  Beta  occ. eigenvalues --  -10.16013  -1.25453  -0.92855  -0.86382  -0.80452
  Beta  occ. eigenvalues --   -0.77722  -0.75679  -0.74519  -0.71281  -0.66673
  Beta  occ. eigenvalues --   -0.61584  -0.55403  -0.52398  -0.50951  -0.49777
  Beta  occ. eigenvalues --   -0.48732  -0.47423  -0.46668  -0.45163  -0.44491
  Beta  occ. eigenvalues --   -0.43948  -0.43506  -0.42893  -0.42551  -0.42149
  Beta  occ. eigenvalues --   -0.40876  -0.36454  -0.35782  -0.35485  -0.34299
  Beta  occ. eigenvalues --   -0.24589  -0.22935
  Beta virt. eigenvalues --   -0.02556  -0.00759   0.03114   0.03771   0.04407
  Beta virt. eigenvalues --    0.04723   0.06134   0.06526   0.06691   0.07290
  Beta virt. eigenvalues --    0.08149   0.09365   0.09779   0.10076   0.10636

 Mulliken charges and spin densities:
               1          2
     1  C    0.306952   0.002988
     2  C   -0.284590   0.001922
     3  C   -0.037104   0.008538
     4  C   -0.395566   0.001479
     5  C    0.347129   0.010429
     6  C   -0.383077   0.020479
     7  C   -0.420555   0.003708
     8  C   -0.406452   0.006113
     9  C   -0.403322   0.024860
    10  N   -0.030453   0.452912
    11  O   -0.524704   0.471938
    12  H    0.143990   0.000924
    13  H    0.141034   0.000029
    14  H    0.165410   0.000667
    15  H    0.152951  -0.000767
    16  H    0.131903  -0.001279
    17  H    0.123893  -0.001024
    18  H    0.143072  -0.000112
    19  H    0.138871   0.000226
    20  H    0.127440   0.000143
    21  H    0.125793   0.000183
    22  H    0.149839  -0.000229
    23  H    0.137875  -0.000133
    24  H    0.130056  -0.001095
    25  H    0.155095  -0.000999
    26  H    0.138353  -0.001711
    27  H    0.126167  -0.000188
 Sum of Mulliken charges =  -0.00000   1.00000

 Dipole moment (field-independent basis, Debye):
    X=              1.5645    Y=              1.9787    Z=              0.7139  Tot=              2.6216
 Quadrupole moment (field-independent basis, Debye-Ang):
   XX=            -62.8572   YY=            -70.4452   ZZ=            -67.4379
   XY=             -2.4552   XZ=             -0.3666   YZ=              0.7682

 Normal termination of Gaussian 16 at Sun Jun 23 21:42:04 2019.
